[b][color=darkgold]Hello and welcome to Gold! 
Gold is a chemical element with symbol Au and atomic number 79. It is a bright yellow dense, soft, malleable and ductile metal. The properties remain when exposed to air or water. Chemically, gold is a transition metal and a group 11 element.[/b][/color]
[b][color=darkorange]Symbol: Au
Melting point: 1,948&deg;F (1,064&deg;C)
Electron configuration: [Xe] 4f14 5d10 6s1
Atomic number: 79
Boiling point: 5,378&deg;F (2,970&deg;C)
Atomic mass: 196.96657 &plusmn; 0.000004 u
[/b][/color]

[b]This region is a colony of [url=http://www.nationstates.net/region=Union of Confederate Regions][u][color=redorange]Union of confederate regions[/color][/u][/url][/b]